-- Format      : Generic Eclipse style (ASCII) grid geometry and properties (*.GRDECL)
-- Exported by : Petres
-- Date        : Saturday, March 28 2026 23:49:21
-- Grid        : 3D Grid (20X20X5)



SPECGRID
20 20 5  1  F /

COORD
5*0.0 2*100.0 2*0.0 100.0 0.0 100.0 200.0 2*0.0 200.0 0.0 100.0 300.0 2*0.0 300.0 0.0 100.0 400.0 2*0.0 400.0 0.0
100.0 500.0 2*0.0 500.0 0.0 100.0 600.0 2*0.0 600.0 0.0 100.0 700.0 2*0.0 700.0 0.0 100.0 800.0 2*0.0 800.0 0.0
100.0 900.0 2*0.0 900.0 0.0 100.0 1000.0 2*0.0 1000.0 0.0 100.0 0.0 100.0 2*0.0 4*100.0 0.0 3*100.0 200.0 100.0 0.0
200.0 2*100.0 300.0 100.0 0.0 300.0 2*100.0 400.0 100.0 0.0 400.0 2*100.0 500.0 100.0 0.0 500.0 2*100.0 600.0 100.0 0.0
600.0 2*100.0 700.0 100.0 0.0 700.0 2*100.0 800.0 100.0 0.0 800.0 2*100.0 900.0 100.0 0.0 900.0 2*100.0 1000.0 100.0 0.0
1000.0 2*100.0 0.0 200.0 2*0.0 200.0 2*100.0 200.0 0.0 100.0 200.0 100.0 2*200.0 0.0 2*200.0 100.0 300.0 200.0 0.0 300.0
200.0 100.0 400.0 200.0 0.0 400.0 200.0 100.0 500.0 200.0 0.0 500.0 200.0 100.0 600.0 200.0 0.0 600.0 200.0 100.0
700.0 200.0 0.0 700.0 200.0 100.0 800.0 200.0 0.0 800.0 200.0 100.0 900.0 200.0 0.0 900.0 200.0 100.0 1000.0 200.0
0.0 1000.0 200.0 100.0 0.0 300.0 2*0.0 300.0 2*100.0 300.0 0.0 100.0 300.0 100.0 200.0 300.0 0.0 200.0 300.0 100.0
2*300.0 0.0 2*300.0 100.0 400.0 300.0 0.0 400.0 300.0 100.0 500.0 300.0 0.0 500.0 300.0 100.0 600.0 300.0 0.0 600.0
300.0 100.0 700.0 300.0 0.0 700.0 300.0 100.0 800.0 300.0 0.0 800.0 300.0 100.0 900.0 300.0 0.0 900.0 300.0 100.0
1000.0 300.0 0.0 1000.0 300.0 100.0 0.0 400.0 2*0.0 400.0 2*100.0 400.0 0.0 100.0 400.0 100.0 200.0 400.0 0.0 200.0
400.0 100.0 300.0 400.0 0.0 300.0 400.0 100.0 2*400.0 0.0 2*400.0 100.0 500.0 400.0 0.0 500.0 400.0 100.0 600.0 400.0
0.0 600.0 400.0 100.0 700.0 400.0 0.0 700.0 400.0 100.0 800.0 400.0 0.0 800.0 400.0 100.0 900.0 400.0 0.0 900.0
400.0 100.0 1000.0 400.0 0.0 1000.0 400.0 100.0 0.0 500.0 2*0.0 500.0 2*100.0 500.0 0.0 100.0 500.0 100.0 200.0 500.0
0.0 200.0 500.0 100.0 300.0 500.0 0.0 300.0 500.0 100.0 400.0 500.0 0.0 400.0 500.0 100.0 2*500.0 0.0 2*500.0 100.0
600.0 500.0 0.0 600.0 500.0 100.0 700.0 500.0 0.0 700.0 500.0 100.0 800.0 500.0 0.0 800.0 500.0 100.0 900.0 500.0
0.0 900.0 500.0 100.0 1000.0 500.0 0.0 1000.0 500.0 100.0 0.0 600.0 2*0.0 600.0 2*100.0 600.0 0.0 100.0 600.0 100.0
200.0 600.0 0.0 200.0 600.0 100.0 300.0 600.0 0.0 300.0 600.0 100.0 400.0 600.0 0.0 400.0 600.0 100.0 500.0 600.0
0.0 500.0 600.0 100.0 2*600.0 0.0 2*600.0 100.0 700.0 600.0 0.0 700.0 600.0 100.0 800.0 600.0 0.0 800.0 600.0 100.0
900.0 600.0 0.0 900.0 600.0 100.0 1000.0 600.0 0.0 1000.0 600.0 100.0 0.0 700.0 2*0.0 700.0 2*100.0 700.0 0.0 100.0
700.0 100.0 200.0 700.0 0.0 200.0 700.0 100.0 300.0 700.0 0.0 300.0 700.0 100.0 400.0 700.0 0.0 400.0 700.0 100.0
500.0 700.0 0.0 500.0 700.0 100.0 600.0 700.0 0.0 600.0 700.0 100.0 2*700.0 0.0 2*700.0 100.0 800.0 700.0 0.0 800.0
700.0 100.0 900.0 700.0 0.0 900.0 700.0 100.0 1000.0 700.0 0.0 1000.0 700.0 100.0 0.0 800.0 2*0.0 800.0 2*100.0 800.0
0.0 100.0 800.0 100.0 200.0 800.0 0.0 200.0 800.0 100.0 300.0 800.0 0.0 300.0 800.0 100.0 400.0 800.0 0.0 400.0
800.0 100.0 500.0 800.0 0.0 500.0 800.0 100.0 600.0 800.0 0.0 600.0 800.0 100.0 700.0 800.0 0.0 700.0 800.0 100.0
2*800.0 0.0 2*800.0 100.0 900.0 800.0 0.0 900.0 800.0 100.0 1000.0 800.0 0.0 1000.0 800.0 100.0 0.0 900.0 2*0.0 900.0
2*100.0 900.0 0.0 100.0 900.0 100.0 200.0 900.0 0.0 200.0 900.0 100.0 300.0 900.0 0.0 300.0 900.0 100.0 400.0 900.0
0.0 400.0 900.0 100.0 500.0 900.0 0.0 500.0 900.0 100.0 600.0 900.0 0.0 600.0 900.0 100.0 700.0 900.0 0.0 700.0
900.0 100.0 800.0 900.0 0.0 800.0 900.0 100.0 2*900.0 0.0 2*900.0 100.0 1000.0 900.0 0.0 1000.0 900.0 100.0 0.0 1000.0
2*0.0 1000.0 2*100.0 1000.0 0.0 100.0 1000.0 100.0 200.0 1000.0 0.0 200.0 1000.0 100.0 300.0 1000.0 0.0 300.0 1000.0 100.0
400.0 1000.0 0.0 400.0 1000.0 100.0 500.0 1000.0 0.0 500.0 1000.0 100.0 600.0 1000.0 0.0 600.0 1000.0 100.0 700.0 1000.0
0.0 700.0 1000.0 100.0 800.0 1000.0 0.0 800.0 1000.0 100.0 900.0 1000.0 0.0 900.0 1000.0 100.0 2*1000.0 0.0 2*1000.0 100.0
/


ZCORN
400*0.0 800*20.0 800*40.0 800*60.0 800*80.0 400*100.0
/


PORO
0.2152358591556549 0.1480007916688919 0.23752255737781525 0.24702823162078857 0.1024482399225235 0.13489101827144623 0.20639201998710632 0.1841878741979599 0.19915993511676788 0.15734779834747314 0.2439699023962021 0.23888958990573883 0.2033015340566635 0.25636205077171326 0.22337546944618225 0.15703538060188293 0.2184375375509262 0.15205587446689606 0.24392251670360565 0.1975037008523941
0.1907568871974945 0.16595351696014404 0.2611270546913147 0.19227352738380432 0.17858360707759857 0.18239332735538483 0.22661545872688293 0.21827220916748047 0.22063663601875305 0.22154104709625244 0.3070823848247528 0.1796792447566986 0.1743878573179245 0.15931136906147003 0.23079897463321686 0.2564486265182495 0.19430263340473175 0.1579921692609787 0.1587759405374527 0.2325296401977539
0.23716270923614502 0.22715771198272705 0.16672451794147491 0.21160806715488434 0.2058342844247818 0.21093443036079407 0.2435714453458786 0.21117977797985077 0.23394568264484406 0.20337896049022675 0.2144559770822525 0.23156441748142242 0.12714220583438873 0.18401643633842468 0.17648136615753174 0.16805610060691833 0.18624289333820343 0.2747470736503601 0.15670844912528992 0.24841392040252686
0.11585651338100433 0.18325574696063995 0.208137646317482 0.22931112349033356 0.2355613261461258 0.2396673560142517 0.18256375193595886 0.17688241600990295 0.24289879202842712 0.1904347836971283 0.1362156867980957 0.14333564043045044 0.15402738749980927 0.22485803067684174 0.20712128281593323 0.23452426493167877 0.17863737046718597 0.20792698860168457 0.23127952218055725 0.18453267216682434
0.22283875942230225 0.16690370440483093 0.18184730410575867 0.18091310560703278 0.14020802080631256 0.22434861958026886 0.1765298843383789 0.20062470436096191 0.22403733432292938 0.22232656180858612 0.23326925933361053 0.19507572054862976 0.17883507907390594 0.19601409137248993 0.1156332790851593 0.1276443749666214 0.13386501371860504 0.15013766288757324 0.21998871862888336 0.154726043343544
0.18109187483787537 0.2649614214897156 0.1821867972612381 0.2368757724761963 0.1533191204071045 0.18972812592983246 0.15249890089035034 0.18304835259914398 0.24201540648937225 0.11363397538661957 0.22172118723392487 0.21188677847385406 0.17029249668121338 0.12769711017608643 0.2036064714193344 0.1735253632068634 0.2116338163614273 0.20109260082244873 0.2800889313220978 0.18803222477436066
0.14882512390613556 0.2089637815952301 0.21099983155727386 0.2679593861103058 0.24175556004047394 0.21784354746341705 0.27316513657569885 0.14056184887886047 0.16801242530345917 0.15367120504379272 0.1805095076560974 0.13116569817066193 0.23175755143165588 0.18888886272907257 0.12645968794822693 0.1492210477590561 0.2156756967306137 0.2419063299894333 0.29983654618263245 0.34569311141967773
0.22072046995162964 0.1505230963230133 0.09339768439531326 0.21338556706905365 0.15935294330120087 0.1792321354150772 0.16939516365528107 0.1929604560136795 0.2532989978790283 0.20785242319107056 0.19206826388835907 0.1482173055410385 0.11626585572957993 0.1756846010684967 0.19731087982654572 0.2883965075016022 0.20651373267173767 0.24913696944713593 0.17503522336483002 0.14075280725955963
0.15174415707588196 0.1637386977672577 0.30642348527908325 0.15893065929412842 0.2419244647026062 0.15485364198684692 0.246578648686409 0.21924754977226257 0.19216810166835785 0.19796186685562134 0.16726061701774597 0.2223036140203476 0.17725083231925964 0.13871970772743225 0.13610312342643738 0.20862939953804016 0.27895456552505493 0.207999587059021 0.1940680891275406 0.2142913043498993
0.26530009508132935 0.21096912026405334 0.17945364117622375 0.255314439535141 0.22143782675266266 0.27678778767585754 0.20916172862052917 0.13877655565738678 0.1315920352935791 0.28254640102386475 0.28618329763412476 0.1910240352153778 0.1808406412601471 0.273072212934494 0.1446477174758911 0.15526364743709564 0.2321663349866867 0.1802697479724884 0.19974391162395477 0.19182784855365753
0.2168787270784378 0.2703740894794464 0.20452924072742462 0.23219694197177887 0.09749139845371246 0.19756408035755157 0.15783849358558655 0.13905934989452362 0.15609237551689148 0.18329383432865143 0.2457951307296753 0.13368035852909088 0.2015315741300583 0.17579153180122375 0.18361634016036987 0.25013789534568787 0.22690577805042267 0.2668699026107788 0.19227471947669983 0.16520287096500397
0.18880705535411835 0.21212483942508698 0.20882867276668549 0.14578059315681458 0.20452448725700378 0.21141141653060913 0.3258737027645111 0.29384222626686096 0.15733782947063446 0.18563082814216614 0.1268278956413269 0.1704646497964859 0.21578024327754974 0.2602926790714264 0.16354580223560333 0.16729268431663513 0.09263554960489273 0.1918667107820511 0.14687928557395935 0.1735280305147171
0.15615695714950562 0.19528687000274658 0.1121135801076889 0.1266477406024933 0.3064623475074768 0.1356288641691208 0.1451607197523117 0.2918456792831421 0.3452533483505249 0.14142167568206787 0.18158754706382751 0.21707777678966522 0.2864348888397217 0.15065714716911316 0.18773610889911652 0.2388668805360794 0.2217383086681366 0.18119218945503235 0.19330884516239166 0.13125520944595337
0.18809130787849426 0.1866806298494339 0.21160849928855896 0.17223364114761353 0.22357693314552307 0.2506358027458191 0.20777146518230438 0.21758781373500824 0.2026577740907669 0.2000042200088501 0.16392210125923157 0.21582470834255219 0.1951356679201126 0.3046584129333496 0.27866774797439575 0.21929232776165009 0.16184714436531067 0.1443794220685959 0.25955715775489807 0.2131374627351761
0.22400717437267303 0.1127706989645958 0.24637192487716675 0.22272101044654846 0.1444784700870514 0.17642375826835632 0.2131858617067337 0.20262333750724792 0.18539144098758698 0.19482558965682983 0.18740113079547882 0.20762813091278076 0.2735745906829834 0.07166707515716553 0.18815748393535614 0.20882561802864075 0.214799702167511 0.18140427768230438 0.11216390877962112 0.21639977395534515
0.2863675057888031 0.12330693006515503 0.2431914061307907 0.18357373774051666 0.196933776140213 0.1473550796508789 0.1832771897315979 0.26500222086906433 0.2291327565908432 0.2866155803203583 0.25887060165405273 0.2219543308019638 0.28719672560691833 0.22194965183734894 0.24139940738677979 0.1851714551448822 0.20332729816436768 0.16512881219387054 0.24947918951511383 0.14108482003211975
0.23911751806735992 0.1904674470424652 0.2585623562335968 0.23754344880580902 0.2910323143005371 0.23653873801231384 0.12139798700809479 0.1966523379087448 0.14139963686466217 0.17408600449562073 0.2755614221096039 0.2318766862154007 0.16505347192287445 0.14931413531303406 0.2016391009092331 0.13917198777198792 0.16644299030303955 0.21560047566890717 0.25776559114456177 0.23043806850910187
0.08543552458286285 0.21521833539009094 0.20360167324543 0.22069451212882996 0.28081047534942627 0.0968380868434906 0.17044483125209808 0.22954531013965607 0.12092027813196182 0.2737974524497986 0.21841782331466675 0.2423291951417923 0.1714528203010559 0.24068818986415863 0.2534235715866089 0.21164390444755554 0.2117200493812561 0.21351715922355652 0.1568327397108078 0.192623570561409
0.1923738718032837 0.21916969120502472 0.24999120831489563 0.1470731943845749 0.1937495470046997 0.2740727663040161 0.16282059252262115 0.15888750553131104 0.21011531352996826 0.2422192543745041 0.20057129859924316 0.2664480209350586 0.24283969402313232 0.24209100008010864 0.22770582139492035 0.31638264656066895 0.18974190950393677 0.09982388466596603 0.28021273016929626 0.17711502313613892
0.20539402961730957 0.2654775381088257 0.11988702416419983 0.13741764426231384 0.11993610113859177 0.16029319167137146 0.22198182344436646 0.2262093871831894 0.21381370723247528 0.12936170399188995 0.08449482917785645 0.20271767675876617 0.1764111965894699 0.22296929359436035 0.23509767651557922 0.2069120705127716 0.23800665140151978 0.21146057546138763 0.22650323808193207 0.1647663414478302
0.1910194307565689 0.20983880758285522 0.24102641642093658 0.18031294643878937 0.22605836391448975 0.18670806288719177 0.19412289559841156 0.24147595465183258 0.10034698247909546 0.1351763904094696 0.12589073181152344 0.08331919461488724 0.16608677804470062 0.23747169971466064 0.18575578927993774 0.2098895013332367 0.254460871219635 0.2663843035697937 0.19654309749603271 0.2676793038845062
0.2046063393354416 0.15813009440898895 0.17027997970581055 0.125973179936409 0.15559330582618713 0.18209916353225708 0.24017925560474396 0.28603848814964294 0.13089092075824738 0.21964137256145477 0.14797280728816986 0.22373485565185547 0.19344566762447357 0.10845471173524857 0.24641485512256622 0.16974996030330658 0.1733049899339676 0.14651237428188324 0.16728582978248596 0.22139452397823334
0.19053778052330017 0.2164330929517746 0.21809609234333038 0.2660330832004547 0.18286068737506866 0.12615710496902466 0.25336113572120667 0.18342559039592743 0.255729615688324 0.21916885673999786 0.19344311952590942 0.21743880212306976 0.29755061864852905 0.3038490116596222 0.20346905291080475 0.2080095261335373 0.2538120150566101 0.15771694481372833 0.21665352582931519 0.19870685040950775
0.21569541096687317 0.15833155810832977 0.12052162736654282 0.09635082632303238 0.14413079619407654 0.17706623673439026 0.18534041941165924 0.29686155915260315 0.2552996575832367 0.1518954485654831 0.2173854261636734 0.1796460896730423 0.1857818067073822 0.2092662751674652 0.23095855116844177 0.18303707242012024 0.25319257378578186 0.14290308952331543 0.20031695067882538 0.3298836946487427
0.21115398406982422 0.271660715341568 0.2045760154724121 0.22903884947299957 0.19716084003448486 0.1914796233177185 0.16102588176727295 0.22151507437229156 0.15742313861846924 0.2332792580127716 0.25426435470581055 0.21832656860351562 0.18568755686283112 0.22269828617572784 0.18456634879112244 0.24677735567092896 0.1084296926856041 0.18321962654590607 0.10045939683914185 0.12524695694446564
/

