-- Format      : Generic Eclipse style (ASCII) grid geometry and properties (*.GRDECL)
-- Exported by : Petres
-- Date        : Tuesday, February 24 2026 10:23:30
-- Grid        : 3D Grid (24X25X12)


MAPUNITS
'FEET' /
GRIDUNIT
'FEET' /
SPECGRID
24 25 12  1  F /
COORD
550153.46883300 -6809425.89591200 7499.18505900 550153.46883300 -6809425.89591200 8815.86718800
550491.04227500 -6809362.67001800 7501.52294900 550491.04227500 -6809362.67001800 8817.42382800
550828.61571700 -6809299.44412400 7507.16015600 550828.61571700 -6809299.44412400 8817.68945300
551166.18915900 -6809236.21822900 8498.63085900 551166.18915900 -6809236.21822900 8818.63085900
551627.18800500 -6809254.26696600 8496.66210900 551627.18800500 -6809254.26696600 8816.66210900
552088.09030800 -6809273.65710300 8492.70605500 552088.09030800 -6809273.65710300 8812.70605500
552548.82462800 -6809294.49154500 8482.11816400 552548.82462800 -6809294.49154500 8802.11816400
553009.23875700 -6809316.82240100 8461.37304700 553009.23875700 -6809316.82240100 8781.37304700
553469.26433600 -6809340.65426500 8442.45214800 553469.26433600 -6809340.65426500 8762.45214800
553929.94157200 -6809366.24996800 8406.25878900 553929.94157200 -6809366.24996800 8726.25878900
554396.07399400 -6809394.99029400 8397.03418000 554396.07399400 -6809394.99029400 8727.58496100
554876.62882200 -6809429.05069000 8068.34082000 554876.62882200 -6809429.05069000 8685.53710900
555264.59207600 -6809440.45072300 8066.45214800 555264.59207600 -6809440.45072300 8437.51757800
555625.39467400 -6809447.49526800 8061.66650400 555625.39467400 -6809447.49526800 8447.97753900
555983.64717400 -6809455.29904000 8069.61962900 555983.64717400 -6809455.29904000 8470.28906300
556343.08467200 -6809463.64154900 8065.00293000 556343.08467200 -6809463.64154900 8518.30761700
556783.54907900 -6809456.45608300 8101.06250000 556783.54907900 -6809456.45608300 8531.69238300
557233.30363100 -6809450.57272200 8110.58203100 557233.30363100 -6809450.57272200 8556.16015600
557685.55670400 -6809446.77804400 8120.34375000 557685.55670400 -6809446.77804400 8581.11425800
558136.71457300 -6809443.56668900 8199.01171900 558136.71457300 -6809443.56668900 8677.85937500
558509.48366900 -6809444.29034800 8083.63769500 558509.48366900 -6809444.29034800 9001.91796900
558882.25276400 -6809445.01400700 8042.09472700 558882.25276400 -6809445.01400700 8996.95312500
559255.02185900 -6809445.73766500 8018.78613300 559255.02185900 -6809445.73766500 9005.48437500
559627.79095500 -6809446.46132400 8004.98535200 559627.79095500 -6809446.46132400 9007.66796900
560000.56005000 -6809447.18498300 7998.71484400 560000.56005000 -6809447.18498300 9006.74609400
550031.37560500 -6808897.51804000 7496.86865200 550031.37560500 -6808897.51804000 8814.31445300
550248.64271500 -6808763.65756100 8498.72460900 550248.64271500 -6808763.65756100 8818.72460900
550709.57660400 -6808779.00290600 8496.99511700 550709.57660400 -6808779.00290600 8816.99511700
551170.64818900 -6808795.37583000 8492.40918000 551170.64818900 -6808795.37583000 8812.40918000
551631.64936900 -6808812.83119800 8477.55761700 551631.64936900 -6808812.83119800 8797.55761700
552092.47571500 -6808831.43189100 8450.08984400 552092.47571500 -6808831.43189100 8770.08984400
552553.13830200 -6808851.27757900 8418.96679700 552553.13830200 -6808851.27757900 8738.96679700
553013.72064400 -6808872.47525700 8372.83105500 553013.72064400 -6808872.47525700 8692.83105500
553474.23069000 -6808895.01985800 8347.08886700 553474.23069000 -6808895.01985800 8667.08886700
553934.06919700 -6808918.67487200 8308.92089800 553934.06919700 -6808918.67487200 8628.92089800
554392.26054800 -6808943.04749200 8280.89550800 554392.26054800 -6808943.04749200 8605.04687500
554849.23877300 -6808967.83239400 7994.18212900 554849.23877300 -6808967.83239400 8562.99316400
555235.27183500 -6808975.48697500 7991.70752000 555235.27183500 -6808975.48697500 8354.36035200
555615.31947800 -6808983.17182000 7999.87255900 555615.31947800 -6808983.17182000 8379.20214800
555991.27417300 -6808989.10184400 8015.99511700 555991.27417300 -6808989.10184400 8409.98730500
556368.20120500 -6808993.78512300 8050.14013700 556368.20120500 -6808993.78512300 8468.85253900
556778.51468600 -6808993.15227300 8090.82177700 556778.51468600 -6808993.15227300 8530.00878900
557231.51052500 -6808985.99042400 8090.99121100 557231.51052500 -6808985.99042400 8530.85449200
557679.02406500 -6808979.75910100 8101.67871100 557679.02406500 -6808979.75910100 8557.99218800
558123.18006600 -6808973.16727100 8178.99658200 558123.18006600 -6808973.16727100 8862.37011700
558570.24545100 -6808943.68402700 8443.23730500 558570.24545100 -6808943.68402700 8937.41601600
559015.66574500 -6808913.47840000 8465.33398400 559015.66574500 -6808913.47840000 8983.47070300
559460.09403400 -6808883.76370900 8481.44824200 559460.09403400 -6808883.76370900 9011.83398400
559763.91010500 -6808919.23092400 7997.44726600 559763.91010500 -6808919.23092400 9010.77148400
560067.72617700 -6808954.69813900 7992.45312500 560067.72617700 -6808954.69813900 9005.82812500
550032.34795500 -6808448.12239900 7493.15087900 550032.34795500 -6808448.12239900 8808.33398400
550252.37431300 -6808322.60956500 8494.10937500 550252.37431300 -6808322.60956500 8814.10937500
550713.22577400 -6808337.55118500 8481.48046900 550713.22577400 -6808337.55118500 8801.48046900
551174.17237400 -6808353.35839800 8460.50488300 551174.17237400 -6808353.35839800 8780.50488300
551634.95752100 -6808370.06214800 8420.26660200 551634.95752100 -6808370.06214800 8740.26660200
552095.43102200 -6808387.63728300 8366.25390600 552095.43102200 -6808387.63728300 8686.25390600
552555.52782900 -6808406.13035500 8326.39550800 552555.52782900 -6808406.13035500 8646.39550800
553015.38618700 -6808425.64138700 8282.60351600 553015.38618700 -6808425.64138700 8602.60351600
553475.26134500 -6808446.23097200 8229.86328100 553475.26134500 -6808446.23097200 8549.86328100
553934.00385900 -6808467.41770900 8187.55566400 553934.00385900 -6808467.41770900 8507.55566400
554385.14119300 -6808487.26704300 8144.68164100 554385.14119300 -6808487.26704300 8464.68164100
554820.19174800 -6808503.52237100 7893.44970700 554820.19174800 -6808503.52237100 8423.30957000
555212.40948400 -6808508.43669100 7896.31103500 555212.40948400 -6808508.43669100 8250.46484400
555604.40900200 -6808513.23738000 7910.67822300 555604.40900200 -6808513.23738000 8282.12402300
555996.25374100 -6808516.41673200 7932.19531300 555996.25374100 -6808516.41673200 8319.97558600
556392.35336400 -6808517.60032600 7971.77197300 556392.35336400 -6808517.60032600 8374.25585900
556798.45752300 -6808518.31760100 8024.56298800 556798.45752300 -6808518.31760100 8460.11718800
557235.97129500 -6808512.37370200 8070.36816400 557235.97129500 -6808512.37370200 8505.53320300
557675.08342200 -6808505.61637800 8081.52539100 557675.08342200 -6808505.61637800 8533.18359400
558114.33412900 -6808498.05942800 8122.31787100 558114.33412900 -6808498.05942800 8797.26953100
558562.73445000 -6808472.93672100 8384.42773400 558562.73445000 -6808472.93672100 8873.13476600
559009.85428200 -6808447.34497000 8417.91113300 559009.85428200 -6808447.34497000 8928.10839800
559455.63915400 -6808421.61987200 8453.60937500 559455.63915400 -6808421.61987200 8980.88281300
559900.72003100 -6808396.50500400 8476.82910200 559900.72003100 -6808396.50500400 9017.77050800
560135.23769100 -6808464.46353500 7981.21386700 560135.23769100 -6808464.46353500 8999.96289100
550033.07148000 -6807998.32090400 7487.74853500 550033.07148000 -6807998.32090400 8796.58203100
550255.60826100 -6807880.74986300 8480.65136700 550255.60826100 -6807880.74986300 8800.65136700
550716.22369900 -6807895.15737100 8434.50390600 550716.22369900 -6807895.15737100 8754.50390600
551176.85471600 -6807910.29100800 8386.58984400 551176.85471600 -6807910.29100800 8706.58984400
551637.24235600 -6807926.07976500 8339.65039100 551637.24235600 -6807926.07976500 8659.65039100
552097.14234100 -6807942.41869400 8283.23242200 552097.14234100 -6807942.41869400 8603.23242200
552556.24274900 -6807959.29225900 8224.69921900 552556.24274900 -6807959.29225900 8544.69921900
553014.22528300 -6807976.60714000 8168.60888700 553014.22528300 -6807976.60714000 8488.60839800
553470.97376300 -6807994.28484300 8101.68554700 553470.97376300 -6807994.28484300 8421.68554700
553927.78196500 -6808012.61504400 8049.86669900 553927.78196500 -6808012.61504400 8369.86621100
554388.69126200 -6808032.59363400 7815.42431600 554388.69126200 -6808032.59363400 8293.24121100
554794.05030100 -6808036.88665800 7803.64209000 554794.05030100 -6808036.88665800 8250.60937500
555194.41815100 -6808039.04946100 7832.58642600 555194.41815100 -6808039.04946100 8179.39013700
555595.67606100 -6808040.71962700 7841.72656300 555595.67606100 -6808040.71962700 8208.31640600
555998.72906000 -6808041.19316900 7869.84668000 555998.72906000 -6808041.19316900 8253.38281300
556404.39485300 -6808040.48363500 7890.95605500 556404.39485300 -6808040.48363500 8289.91015600
556811.53745100 -6808039.68025200 7970.17822300 556811.53745100 -6808039.68025200 8409.54199200
557240.06985200 -6808033.78682700 8054.62255900 557240.06985200 -6808033.78682700 8485.82617200
557673.56842300 -6808026.94167300 8062.48388700 557673.56842300 -6808026.94167300 8511.04687500
558109.39626200 -6808019.27831000 8092.90820300 558109.39626200 -6808019.27831000 8727.03613300
558557.19386100 -6807998.20777100 8324.07714800 558557.19386100 -6807998.20777100 8808.99023400
559004.39600000 -6807976.89769700 8361.79785200 559004.39600000 -6807976.89769700 8869.46484400
559450.77846700 -6807955.38355300 8405.06347700 559450.77846700 -6807955.38355300 8931.06445300
559896.53599500 -6807934.04993400 8445.31152300 559896.53599500 -6807934.04993400 8984.88574200
560132.25222400 -6808004.36435700 7968.10351600 560132.25222400 -6808004.36435700 8976.27734400
550033.58478500 -6807548.14836400 7480.99804700 550033.58478500 -6807548.14836400 8780.75000000
550258.42176800 -6807438.14807200 8460.70605500 550258.42176800 -6807438.14807200 8780.70605500
550718.62663800 -6807451.88708600 8387.67089800 550718.62663800 -6807451.88708600 8707.67089800
551178.75904400 -6807466.19088800 8317.00878900 551178.75904400 -6807466.19088800 8637.00878900
551638.52383500 -6807480.90475500 8252.66796900 551638.52383500 -6807480.90475500 8572.66796900
552097.58525700 -6807495.87704500 8190.25146500 552097.58525700 -6807495.87704500 8510.25097700
552555.48719500 -6807510.98848000 8125.45556600 552555.48719500 -6807510.98848000 8445.45605500
553011.66600300 -6807525.99252400 8055.62597700 553011.66600300 -6807525.99252400 8375.62597700
553465.26975300 -6807540.63946600 7981.50341800 553465.26975300 -6807540.63946600 8301.50390600
553915.42884600 -6807554.49228000 7911.79443400 553915.42884600 -6807554.49228000 8231.79492200
554363.12765700 -6807567.72822100 7770.92041000 554363.12765700 -6807567.72822100 8167.29980500
554772.09559000 -6807568.42633100 7758.67968800 554772.09559000 -6807568.42633100 8081.20214800
555179.60116500 -6807568.47374000 7772.89111300 555179.60116500 -6807568.47374000 8113.38574200
555587.79640700 -6807567.51152100 7784.05273400 555587.79640700 -6807567.51152100 8145.85498000
555997.45812500 -6807565.45005900 7802.73632800 555997.45812500 -6807565.45005900 8182.99169900
556408.03760600 -6807562.41905300 7831.51318400 556408.03760600 -6807562.41905300 8227.77539100
556818.18760300 -6807558.85369500 7908.19238300 556818.18760300 -6807558.85369500 8367.37207000
557240.16858300 -6807553.31140600 7980.51855500 557240.16858300 -6807553.31140600 8442.51367200
557672.93722800 -6807545.67337100 8041.45849600 557672.93722800 -6807545.67337100 8488.58691400
558106.43714500 -6807537.81949200 8084.03613300 558106.43714500 -6807537.81949200 8662.43945300
558552.97059500 -6807520.79284700 8257.80273400 558552.97059500 -6807520.79284700 8741.34472700
558999.43726000 -6807503.60444700 8306.69140600 558999.43726000 -6807503.60444700 8811.96386700
559445.72065100 -6807486.24961900 8353.65918000 559445.72065100 -6807486.24961900 8877.48925800
559891.84288000 -6807468.94287200 8399.93652300 559891.84288000 -6807468.94287200 8938.04101600
560129.01221800 -6807542.93918200 7951.95703100 560129.01221800 -6807542.93918200 8943.97070300
550033.95720600 -6807097.60794000 7473.53710900 550033.95720600 -6807097.60794000 8764.98046900
550260.95350600 -6806994.81051000 8426.32519500 550260.95350600 -6806994.81051000 8746.32519500
550720.52628100 -6807007.75193100 8344.64160200 550720.52628100 -6807007.75193100 8664.64160200
551179.90348400 -6807021.05671000 8260.85742200 551179.90348400 -6807021.05671000 8580.85742200
551638.80244500 -6807034.60840700 8178.24511700 551638.80244500 -6807034.60840700 8498.24511700
552096.79152600 -6807048.14884300 8099.87695300 552096.79152600 -6807048.14884300 8419.87695300
552553.32398700 -6807061.41304900 8027.17773400 552553.32398700 -6807061.41304900 8347.17675800
553007.76797700 -6807074.12729800 7924.55761700 553007.76797700 -6807074.12729800 8244.55761700
553459.29540300 -6807085.99614800 7865.57666000 553459.29540300 -6807085.99614800 8185.57666000
553905.09388600 -6807096.10137300 7815.93554700 553905.09388600 -6807096.10137300 8135.93554700
554340.44355600 -6807102.67474100 7709.07812500 554340.44355600 -6807102.67474100 8071.13476600
554753.38498900 -6807100.47796000 7702.89306600 554753.38498900 -6807100.47796000 8023.33252000
555166.33979800 -6807098.07456300 7710.72753900 555166.33979800 -6807098.07456300 8046.76757800
555579.54166900 -6807094.72432800 7730.52050800 555579.54166900 -6807094.72432800 8089.13964800
555993.25119300 -6807090.17812500 7757.17871100 555993.25119300 -6807090.17812500 8135.45556600
556407.37281900 -6807084.46219700 7793.83935500 556407.37281900 -6807084.46219700 8188.86279300
556822.61138000 -6807077.73214100 7831.32568400 556822.61138000 -6807077.73214100 8243.13378900
557241.86190200 -6807070.41739800 7902.89209000 557241.86190200 -6807070.41739800 8382.11523400
557671.29812900 -6807063.02309500 8016.57080100 557671.29812900 -6807063.02309500 8463.65039100
558103.93382000 -6807054.78955100 8079.54101600 558103.93382000 -6807054.78955100 8599.66992200
558549.11370700 -6807041.77176800 8184.36865200 558549.11370700 -6807041.77176800 8668.26660200
558994.65031800 -6807028.62706900 8248.87402300 558994.65031800 -6807028.62706900 8753.21875000
559440.55178200 -6807015.36541100 8312.83593800 559440.55178200 -6807015.36541100 8835.82714800
559886.89009100 -6807002.16659700 8361.62304700 559886.89009100 -6807002.16659700 8899.63574200
560125.64237500 -6807080.67940000 7934.11816400 560125.64237500 -6807080.67940000 8917.59765600
549804.37868700 -6806538.92742300 8447.83886700 549804.37868700 -6806538.92742300 8767.83886700
550263.31535300 -6806550.75217600 8372.78320300 550263.31535300 -6806550.75217600 8692.78320300
550722.08643100 -6806562.81776600 8285.98828100 550722.08643100 -6806562.81776600 8605.98828100
551180.46834900 -6806575.04027000 8196.57324200 551180.46834900 -6806575.04027000 8516.57324200
551638.20607100 -6806587.29413000 8104.48144500 551638.20607100 -6806587.29413000 8424.48144500
552094.93715600 -6806599.33188000 8015.12207000 552094.93715600 -6806599.33188000 8335.12207000
552550.08501900 -6806610.85208300 7921.21777300 552550.08501900 -6806610.85208300 8241.21777300
553002.64645600 -6806621.29538100 7852.54248000 553002.64645600 -6806621.29538100 8172.54248000
553452.39334900 -6806630.49797200 7807.47314500 553452.39334900 -6806630.49797200 8127.47314500
553903.37478200 -6806640.14820700 7719.10888700 553903.37478200 -6806640.14820700 8060.61914100
554320.58646900 -6806636.91212700 7652.20996100 554320.58646900 -6806636.91212700 7996.93750000
554737.68148200 -6806633.30644400 7644.34570300 554737.68148200 -6806633.30644400 7965.10351600
555154.46638400 -6806628.80359100 7653.58544900 555154.46638400 -6806628.80359100 7989.65625000
555571.09413700 -6806623.14213700 7681.71142600 555571.09413700 -6806623.14213700 8040.10351600
555987.75459600 -6806616.12036300 7704.54345700 555987.75459600 -6806616.12036300 8082.59716800
556404.70974800 -6806607.70930600 7752.11621100 556404.70974800 -6806607.70930600 8147.71875000
556822.30011600 -6806598.05305600 7783.64599600 556822.30011600 -6806598.05305600 8196.58691400
557239.92744200 -6806587.35675600 7841.69043000 557239.92744200 -6806587.35675600 8376.50195300
557667.53686100 -6806580.12575400 7906.89697300 557667.53686100 -6806580.12575400 8457.69140600
558100.06809600 -6806571.04814900 8067.48095700 558100.06809600 -6806571.04814900 8539.09960900
558544.66001700 -6806562.10185400 8116.30468800 558544.66001700 -6806562.10185400 8601.23828100
558989.53075000 -6806552.93996600 8189.34619100 558989.53075000 -6806552.93996600 8694.18847700
559435.24068600 -6806543.76310100 8272.57421900 559435.24068600 -6806543.76310100 8796.08691400
559881.90382300 -6806534.74122000 8334.83691400 559881.90382300 -6806534.74122000 8874.36328100
560122.25579200 -6806618.09506800 7915.69824200 560122.25579200 -6806618.09506800 8909.19921900
549807.36008600 -6806095.05976300 8422.43554700 549807.36008600 -6806095.05976300 8742.69726600
550265.57629400 -6806106.11914300 8331.79687500 550265.57629400 -6806106.11914300 8652.23144500
550723.42101000 -6806117.23874900 8237.13671900 550723.42101000 -6806117.23874900 8557.92285200
551180.69033400 -6806128.31400500 8135.64990200 551180.69033400 -6806128.31400500 8454.56933600
551637.05520700 -6806139.17537900 8041.03662100 551637.05520700 -6806139.17537900 8363.15136700
552092.26685200 -6806149.61333700 7951.34472700 552092.26685200 -6806149.61333700 8267.46777300
552546.21009500 -6806159.49642400 7865.18994100 552546.21009500 -6806159.49642400 8189.09033200
552998.35243500 -6806168.48404900 7814.54834000 552998.35243500 -6806168.48404900 8126.61132800
553445.86951500 -6806175.16047100 7768.88134800 553445.86951500 -6806175.16047100 8088.88134800
553884.35122500 -6806177.38332100 7663.76513700 553884.35122500 -6806177.38332100 7991.77929700
554304.96423700 -6806173.01742000 7596.18164100 554304.96423700 -6806173.01742000 7916.18164100
554724.58124700 -6806167.58260600 7588.64502000 554724.58124700 -6806167.58260600 7911.21435500
555143.89588900 -6806161.07506800 7605.65283200 555143.89588900 -6806161.07506800 7947.01123000
555562.89881600 -6806153.29174300 7640.46826200 555562.89881600 -6806153.29174300 8000.31298800
555981.65348400 -6806143.92977400 7679.84375000 555981.65348400 -6806143.92977400 8058.60595700
556400.37439100 -6806133.00139800 7716.80712900 556400.37439100 -6806133.00139800 8114.20556600
556819.34303900 -6806121.02514100 7758.82568400 556819.34303900 -6806121.02514100 8174.08740200
557239.48902600 -6806108.90469600 7791.09912100 557239.48902600 -6806108.90469600 8224.64257800
557662.93967200 -6806096.90145200 7855.16015600 557662.93967200 -6806096.90145200 8457.60546900
558094.98285100 -6806087.53309800 8014.48779300 558094.98285100 -6806087.53309800 8497.04101600
558538.97192200 -6806082.58616100 8060.57910200 558538.97192200 -6806082.58616100 8548.41308600
558983.59309800 -6806077.30813100 8128.23584000 558983.59309800 -6806077.30813100 8634.23046900
559429.73461300 -6806072.36913500 8227.75293000 559429.73461300 -6806072.36913500 8751.43359400
559877.15872200 -6806067.64287800 8317.04882800 559877.15872200 -6806067.64287800 8857.13085900
560325.32782500 -6806062.77762800 8385.88867200 560325.32782500 -6806062.77762800 8935.63281300
549810.39565400 -6805650.80491200 8412.57617200 549810.39565400 -6805650.80491200 8732.57617200
550267.81675700 -6805661.02328800 8303.48535200 550267.81675700 -6805661.02328800 8623.48535200
550724.69389900 -6805671.16881800 8190.00341800 550724.69389900 -6805671.16881800 8510.00293000
551180.78553300 -6805681.08603200 8080.74462900 551180.78553300 -6805681.08603200 8400.74414100
551635.80211000 -6805690.54870900 7987.31054700 551635.80211000 -6805690.54870900 8307.31054700
552089.36028200 -6805699.34805600 7881.99560500 552089.36028200 -6805699.34805600 8201.99609400
552541.36501800 -6805707.32095600 7820.01367200 552541.36501800 -6805707.32095600 8140.01367200
552992.76307900 -6805714.86418400 7778.86669900 552992.76307900 -6805714.86418400 8098.86669900
553446.26292200 -6805723.13419200 7680.15087900 553446.26292200 -6805723.13419200 8015.19726600
553868.72878200 -6805716.72261100 7581.85937500 553868.72878200 -6805716.72261100 7920.24951200
554291.29774900 -6805710.35751600 7564.50048800 554291.29774900 -6805710.35751600 7885.41845700
554713.16916800 -6805703.31697400 7560.53662100 554713.16916800 -6805703.31697400 7891.73388700
555134.44930200 -6805695.14624300 7565.85986300 555134.44930200 -6805695.14624300 7915.08056600
555555.23328900 -6805685.56604300 7613.10742200 555555.23328900 -6805685.56604300 7979.70605500
555975.54541300 -6805674.26404100 7657.36181600 555975.54541300 -6805674.26404100 8041.30517600
556395.51057500 -6805661.21175700 7702.14794900 556395.51057500 -6805661.21175700 8103.94921900
556815.33678300 -6805646.79422300 7743.32959000 556815.33678300 -6805646.79422300 8162.27490200
557235.45849300 -6805631.83958000 7778.50781300 557235.45849300 -6805631.83958000 8215.98535200
557655.89492700 -6805617.08597500 7832.79882800 557655.89492700 -6805617.08597500 8458.50781300
558088.82833300 -6805605.41273300 7976.39599600 558088.82833300 -6805605.41273300 8468.80957000
558531.17285000 -6805603.46150500 8035.77880900 558531.17285000 -6805603.46150500 8526.81543000
558976.75995200 -6805602.44865700 8086.05078100 558976.75995200 -6805602.44865700 8594.46484400
559424.39673800 -6805602.25798300 8190.91796900 559424.39673800 -6805602.25798300 8716.56640600
559872.92076100 -6805601.90829700 8296.15332000 559872.92076100 -6805601.90829700 8838.30175800
560321.87262500 -6805600.83079800 8382.68359400 560321.87262500 -6805600.83079800 8932.68359400
549813.52898600 -6805206.27071000 8401.25683600 549813.52898600 -6805206.27071000 8721.52050800
550270.17691000 -6805215.67484600 8284.03906300 550270.17691000 -6805215.67484600 8604.22656300
550726.02089400 -6805224.79674100 8159.47216800 550726.02089400 -6805224.79674100 8475.36035200
551180.92206900 -6805233.49595200 8030.79101600 551180.92206900 -6805233.49595200 8363.41015600
551634.68469300 -6805241.68757200 7926.63671900 551634.68469300 -6805241.68757200 8246.63671900
552087.04503500 -6805249.10990500 7849.10107400 552087.04503500 -6805249.10990500 8169.10107400
552537.45026800 -6805255.45341100 7792.60937500 552537.45026800 -6805255.45341100 8112.60937500
552985.39259600 -6805260.48218900 7752.50439500 552985.39259600 -6805260.48218900 8072.50439500
553431.88502400 -6805265.01210200 7656.09716800 553431.88502400 -6805265.01210200 7986.16357400
553856.16749400 -6805257.14532000 7557.29785200 553856.16749400 -6805257.14532000 7877.29785200
554279.85619000 -6805249.16004500 7553.63623000 554279.85619000 -6805249.16004500 7878.23974600
554703.21102300 -6805240.67158100 7565.78222700 554703.21102300 -6805240.67158100 7905.88574200
555126.01950800 -6805231.15769500 7558.82714800 555126.01950800 -6805231.15769500 7915.92236300
555548.22672800 -6805220.18265900 7599.45361300 555548.22672800 -6805220.18265900 7973.85937500
555969.78732600 -6805207.44549100 7645.60449200 555969.78732600 -6805207.44549100 8037.07666000
556390.67305100 -6805192.77672900 7689.34130900 556390.67305100 -6805192.77672900 8098.31201200
556810.76789000 -6805176.18426100 7732.06445300 556810.76789000 -6805176.18426100 8158.27294900
557229.88235200 -6805157.72945700 7771.38525400 557229.88235200 -6805157.72945700 8215.10253900
557648.37644600 -6805138.39344000 7822.26806600 557648.37644600 -6805138.39344000 8450.86718800
558081.67091900 -6805125.73466000 7921.84228500 558081.67091900 -6805125.73466000 8435.55078100
558520.09060600 -6805124.02173700 7980.72265600 558520.09060600 -6805124.02173700 8472.73828100
558970.20935400 -6805129.83799300 8067.20312500 558970.20935400 -6805129.83799300 8579.13671900
559419.77863500 -6805134.78170300 8165.79296900 559419.77863500 -6805134.78170300 8695.32519500
559869.34310900 -6805138.40505600 8278.84277300 559869.34310900 -6805138.40505600 8822.70507800
560318.97630800 -6805140.58364400 8377.66113300 560318.97630800 -6805140.58364400 8927.41894500
549816.83396300 -6804761.55070100 8390.67382800 549816.83396300 -6804761.55070100 8710.67382800
550272.75909400 -6804770.16862100 8273.14453100 550272.75909400 -6804770.16862100 8593.14453100
550727.63847900 -6804778.27340300 8149.06054700 550727.63847900 -6804778.27340300 8469.06054700
551181.33886300 -6804785.82255900 8019.37451200 551181.33886300 -6804785.82255900 8339.37402300
551633.78312800 -6804792.70535700 7890.61279300 551633.78312800 -6804792.70535700 8210.61328100
552085.02059100 -6804798.92436600 7811.28125000 552085.02059100 -6804798.92436600 8131.28125000
552534.68826000 -6804804.23424200 7780.79003900 552534.68826000 -6804804.23424200 8100.79003900
552980.49837000 -6804807.37933700 7729.39502000 552980.49837000 -6804807.37933700 8049.39502000
553419.26675700 -6804806.33069700 7630.53857400 553419.26675700 -6804806.33069700 7957.83105500
553844.94920200 -6804798.08754400 7552.66113300 553844.94920200 -6804798.08754400 7874.08593800
554270.08011200 -6804789.31419800 7558.28662100 554270.08011200 -6804789.31419800 7890.24365200
554694.63720100 -6804779.79826700 7569.32421900 554694.63720100 -6804779.79826700 7916.90087900
555118.58747100 -6804769.17920300 7563.86132800 555118.58747100 -6804769.17920300 7928.13623000
555541.87220500 -6804757.14933400 7590.08398400 555541.87220500 -6804757.14933400 7971.12402300
555964.43616000 -6804743.43734400 7638.66406300 555964.43616000 -6804743.43734400 8036.51513700
556386.09262200 -6804727.84647000 7683.39794900 556386.09262200 -6804727.84647000 8098.71142600
556806.59151300 -6804709.97801600 7728.35449200 556806.59151300 -6804709.97801600 8160.57910200
557225.27532600 -6804689.10706000 7771.63720700 557225.27532600 -6804689.10706000 8220.53613300
557641.32606200 -6804664.22910500 7820.65966800 557641.32606200 -6804664.22910500 8457.33007800
558074.13321900 -6804656.80625700 7854.27343800 558074.13321900 -6804656.80625700 8441.96289100
558514.63752700 -6804650.66487700 7958.68701200 558514.63752700 -6804650.66487700 8454.72265600
558965.04690900 -6804661.83539200 8060.95898400 558965.04690900 -6804661.83539200 8576.00976600
559415.83262000 -6804670.80836900 8156.42529300 559415.83262000 -6804670.80836900 8688.81738300
559866.35061600 -6804677.55522500 8269.38671900 559866.35061600 -6804677.55522500 8813.93164100
560316.53815200 -6804682.34326600 8369.99609400 560316.53815200 -6804682.34326600 8918.24902300
549820.41338500 -6804316.64958600 8386.99609400 549820.41338500 -6804316.64958600 8706.99609400
550275.68859800 -6804324.54727600 8264.01660200 550275.68859800 -6804324.54727600 8584.01660200
550729.70998100 -6804331.77319000 8123.50390600 550729.70998100 -6804331.77319000 8443.50390600
551182.34489000 -6804338.27071800 8018.34619100 551182.34489000 -6804338.27071800 8338.34668000
551633.41087400 -6804343.91210600 7905.06298800 551633.41087400 -6804343.91210600 8225.06347700
552082.95607600 -6804348.63049000 7807.33105500 552082.95607600 -6804348.63049000 8127.33105500
552531.77070300 -6804352.91952200 7773.48535200 552531.77070300 -6804352.91952200 8093.48535200
552981.96166300 -6804357.94315200 7684.92285200 552981.96166300 -6804357.94315200 8017.38232400
553408.75932100 -6804348.69937100 7606.54003900 553408.75932100 -6804348.69937100 7927.73632800
553835.64761200 -6804340.23371600 7556.37793000 553835.64761200 -6804340.23371600 7879.23046900
554261.83046300 -6804330.91512000 7562.12890600 554261.83046300 -6804330.91512000 7899.65039100
554687.27035700 -6804320.59604300 7571.64111300 554687.27035700 -6804320.59604300 7924.98632800
555112.03311100 -6804309.18250700 7567.18603500 555112.03311100 -6804309.18250700 7936.84570300
555536.16456400 -6804296.45203800 7590.30175800 555536.16456400 -6804296.45203800 7976.10107400
555959.52746100 -6804282.18424700 7636.68457000 555959.52746100 -6804282.18424700 8038.93261700
556381.94563400 -6804266.15661300 7682.31250000 556381.94563400 -6804266.15661300 8101.44580100
556803.27555000 -6804248.19138800 7729.46289100 556803.27555000 -6804248.19138800 8165.64209000
557223.75463500 -6804228.41155700 7772.52929700 557223.75463500 -6804228.41155700 8225.90918000
557644.84897100 -6804208.04527000 7813.24218800 557644.84897100 -6804208.04527000 8283.63867200
558068.36075700 -6804187.83310400 7845.91552700 558068.36075700 -6804187.83310400 8406.09472700
558508.22462400 -6804188.38526700 7936.69628900 558508.22462400 -6804188.38526700 8435.21679700
558961.26244000 -6804200.23501300 8056.71337900 558961.26244000 -6804200.23501300 8575.53418000
559413.01995300 -6804210.91578400 8151.75732400 559413.01995300 -6804210.91578400 8685.58789100
559863.99060000 -6804219.65214200 8260.30468800 559863.99060000 -6804219.65214200 8802.72949200
560314.51064100 -6804226.30991800 8358.66210900 560314.51064100 -6804226.30991800 8906.50293000
549824.31662900 -6803871.58657600 8391.27246100 549824.31662900 -6803871.58657600 8711.27246100
550279.03096000 -6803878.84725700 8266.73046900 550279.03096000 -6803878.84725700 8586.73144500
550732.33252500 -6803885.35085800 8138.57324200 550732.33252500 -6803885.35085800 8458.52929700
551184.11579400 -6803890.99381800 8001.87841800 551184.11579400 -6803890.99381800 8322.99804700
551634.20288200 -6803895.65922300 7884.52294900 551634.20288200 -6803895.65922300 8202.69824200
552082.36141100 -6803899.13670900 7807.27246100 552082.36141100 -6803899.13670900 8128.26025400
552528.44727800 -6803901.39410900 7774.01904300 552528.44727800 -6803901.39410900 8093.58886700
552973.24170000 -6803903.14254800 7683.07519500 552973.24170000 -6803903.14254800 8005.10937500
553401.19509200 -6803893.65396600 7604.47851600 553401.19509200 -6803893.65396600 7925.06738300