-- Format      : Generic Eclipse style (ASCII) grid geometry and properties (*.GRDECL)
-- Exported by : Petrel 2007.1 Schlumberger
-- User name   : rxu2
-- Date        : Monday, July 30 2007 12:14:50
-- Project     : SNARK_SENS.pet
-- Grid        : 3D Grid (450X450)

NOECHO
PINCH
/
MAPUNITS
'FEET' /
MAPAXES
0.000000 -1000.000000
0.000000 0.000000
1000.000000 0.000000 /
GRIDUNIT
'FEET' /
SPECGRID
24 25 12  1  F /

COORDSYS
1 12 /

COORD
550153.468833 -6809425.895912 7499.185059 550153.468833 -6809425.895912 8815.867188
550491.042275 -6809362.670018 7501.522949 550491.042275 -6809362.670018 8817.423828
550828.615717 -6809299.444124 7507.160156 550828.615717 -6809299.444124 8817.689453
551166.189159 -6809236.218229 8498.630859 551166.189159 -6809236.218229 8818.630859
551627.188005 -6809254.266966 8496.662109 551627.188005 -6809254.266966 8816.662109
552088.090308 -6809273.657103 8492.706055 552088.090308 -6809273.657103 8812.706055
552548.824628 -6809294.491545 8482.118164 552548.824628 -6809294.491545 8802.118164
553009.238757 -6809316.822401 8461.373047 553009.238757 -6809316.822401 8781.373047
553469.264336 -6809340.654265 8442.452148 553469.264336 -6809340.654265 8762.452148
553929.941572 -6809366.249968 8406.258789 553929.941572 -6809366.249968 8726.258789
554396.073994 -6809394.990294 8397.034180 554396.073994 -6809394.990294 8727.584961
554876.628822 -6809429.050690 8068.340820 554876.628822 -6809429.050690 8685.537109
555264.592076 -6809440.450723 8066.452148 555264.592076 -6809440.450723 8437.517578
555625.394674 -6809447.495268 8061.666504 555625.394674 -6809447.495268 8447.977539
555983.647174 -6809455.299040 8069.619629 555983.647174 -6809455.299040 8470.289063
556343.084672 -6809463.641549 8065.002930 556343.084672 -6809463.641549 8518.307617
556783.549079 -6809456.456083 8101.062500 556783.549079 -6809456.456083 8531.692383
557233.303631 -6809450.572722 8110.582031 557233.303631 -6809450.572722 8556.160156
557685.556704 -6809446.778044 8120.343750 557685.556704 -6809446.778044 8581.114258
558136.714573 -6809443.566689 8199.011719 558136.714573 -6809443.566689 8677.859375
558509.483669 -6809444.290348 8083.637695 558509.483669 -6809444.290348 9001.917969
558882.252764 -6809445.014007 8042.094727 558882.252764 -6809445.014007 8996.953125
559255.021859 -6809445.737665 8018.786133 559255.021859 -6809445.737665 9005.484375
559627.790955 -6809446.461324 8004.985352 559627.790955 -6809446.461324 9007.667969
560000.560050 -6809447.184983 7998.714844 560000.560050 -6809447.184983 9006.746094

550031.375605 -6808897.518040 7496.868652 550031.375605 -6808897.518040 8814.314453
550248.642715 -6808763.657561 8498.724609 550248.642715 -6808763.657561 8818.724609
550709.576604 -6808779.002906 8496.995117 550709.576604 -6808779.002906 8816.995117
551170.648189 -6808795.375830 8492.409180 551170.648189 -6808795.375830 8812.409180
551631.649369 -6808812.831198 8477.557617 551631.649369 -6808812.831198 8797.557617
552092.475715 -6808831.431891 8450.089844 552092.475715 -6808831.431891 8770.089844
552553.138302 -6808851.277579 8418.966797 552553.138302 -6808851.277579 8738.966797
553013.720644 -6808872.475257 8372.831055 553013.720644 -6808872.475257 8692.831055
553474.230690 -6808895.019858 8347.088867 553474.230690 -6808895.019858 8667.088867
553934.069197 -6808918.674872 8308.920898 553934.069197 -6808918.674872 8628.920898
554392.260548 -6808943.047492 8280.895508 554392.260548 -6808943.047492 8605.046875
554849.238773 -6808967.832394 7994.182129 554849.238773 -6808967.832394 8562.993164
555235.271835 -6808975.486975 7991.707520 555235.271835 -6808975.486975 8354.360352
555615.319478 -6808983.171820 7999.872559 555615.319478 -6808983.171820 8379.202148
555991.274173 -6808989.101844 8015.995117 555991.274173 -6808989.101844 8409.987305
556368.201205 -6808993.785123 8050.140137 556368.201205 -6808993.785123 8468.852539
556778.514686 -6808993.152273 8090.821777 556778.514686 -6808993.152273 8530.008789
557231.510525 -6808985.990424 8090.991211 557231.510525 -6808985.990424 8530.854492
557679.024065 -6808979.759101 8101.678711 557679.024065 -6808979.759101 8557.992188
558123.180066 -6808973.167271 8178.996582 558123.180066 -6808973.167271 8862.370117
558570.245451 -6808943.684027 8443.237305 558570.245451 -6808943.684027 8937.416016
559015.665745 -6808913.478400 8465.333984 559015.665745 -6808913.478400 8983.470703
559460.094034 -6808883.763709 8481.448242 559460.094034 -6808883.763709 9011.833984
559763.910105 -6808919.230924 7997.447266 559763.910105 -6808919.230924 9010.771484
560067.726177 -6808954.698139 7992.453125 560067.726177 -6808954.698139 9005.828125

550032.347955 -6808448.122399 7493.150879 550032.347955 -6808448.122399 8808.333984
550252.374313 -6808322.609565 8494.109375 550252.374313 -6808322.609565 8814.109375
550713.225774 -6808337.551185 8481.480469 550713.225774 -6808337.551185 8801.480469
551174.172374 -6808353.358398 8460.504883 551174.172374 -6808353.358398 8780.504883
551634.957521 -6808370.062148 8420.266602 551634.957521 -6808370.062148 8740.266602
552095.431022 -6808387.637283 8366.253906 552095.431022 -6808387.637283 8686.253906
552555.527829 -6808406.130355 8326.395508 552555.527829 -6808406.130355 8646.395508
553015.386187 -6808425.641387 8282.603516 553015.386187 -6808425.641387 8602.603516
553475.261345 -6808446.230972 8229.863281 553475.261345 -6808446.230972 8549.863281
553934.003859 -6808467.417709 8187.555664 553934.003859 -6808467.417709 8507.555664
554385.141193 -6808487.267043 8144.681641 554385.141193 -6808487.267043 8464.681641
554820.191748 -6808503.522371 7893.449707 554820.191748 -6808503.522371 8423.309570
555212.409484 -6808508.436691 7896.311035 555212.409484 -6808508.436691 8250.464844
555604.409002 -6808513.237380 7910.678223 555604.409002 -6808513.237380 8282.124023
555996.253741 -6808516.416732 7932.195313 555996.253741 -6808516.416732 8319.975586
556392.353364 -6808517.600326 7971.771973 556392.353364 -6808517.600326 8374.255859
556798.457523 -6808518.317601 8024.562988 556798.457523 -6808518.317601 8460.117188
557235.971295 -6808512.373702 8070.368164 557235.971295 -6808512.373702 8505.533203
557675.083422 -6808505.616378 8081.525391 557675.083422 -6808505.616378 8533.183594
558114.334129 -6808498.059428 8122.317871 558114.334129 -6808498.059428 8797.269531
558562.734450 -6808472.936721 8384.427734 558562.734450 -6808472.936721 8873.134766
559009.854282 -6808447.344970 8417.911133 559009.854282 -6808447.344970 8928.108398
559455.639154 -6808421.619872 8453.609375 559455.639154 -6808421.619872 8980.882813
559900.720031 -6808396.505004 8476.829102 559900.720031 -6808396.505004 9017.770508
560135.237691 -6808464.463535 7981.213867 560135.237691 -6808464.463535 8999.962891

550033.071480 -6807998.320904 7487.748535 550033.071480 -6807998.320904 8796.582031
550255.608261 -6807880.749863 8480.651367 550255.608261 -6807880.749863 8800.651367
550716.223699 -6807895.157371 8434.503906 550716.223699 -6807895.157371 8754.503906
551176.854716 -6807910.291008 8386.589844 551176.854716 -6807910.291008 8706.589844
551637.242356 -6807926.079765 8339.650391 551637.242356 -6807926.079765 8659.650391
552097.142341 -6807942.418694 8283.232422 552097.142341 -6807942.418694 8603.232422
552556.242749 -6807959.292259 8224.699219 552556.242749 -6807959.292259 8544.699219
553014.225283 -6807976.607140 8168.608887 553014.225283 -6807976.607140 8488.608398
553470.973763 -6807994.284843 8101.685547 553470.973763 -6807994.284843 8421.685547
553927.781965 -6808012.615044 8049.866699 553927.781965 -6808012.615044 8369.866211
554388.691262 -6808032.593634 7815.424316 554388.691262 -6808032.593634 8293.241211
554794.050301 -6808036.886658 7803.642090 554794.050301 -6808036.886658 8250.609375
555194.418151 -6808039.049461 7832.586426 555194.418151 -6808039.049461 8179.390137
555595.676061 -6808040.719627 7841.726563 555595.676061 -6808040.719627 8208.316406
555998.729060 -6808041.193169 7869.846680 555998.729060 -6808041.193169 8253.382813
556404.394853 -6808040.483635 7890.956055 556404.394853 -6808040.483635 8289.910156
556811.537451 -6808039.680252 7970.178223 556811.537451 -6808039.680252 8409.541992
557240.069852 -6808033.786827 8054.622559 557240.069852 -6808033.786827 8485.826172
557673.568423 -6808026.941673 8062.483887 557673.568423 -6808026.941673 8511.046875
558109.396262 -6808019.278310 8092.908203 558109.396262 -6808019.278310 8727.036133
558557.193861 -6807998.207771 8324.077148 558557.193861 -6807998.207771 8808.990234
559004.396000 -6807976.897697 8361.797852 559004.396000 -6807976.897697 8869.464844
559450.778467 -6807955.383553 8405.063477 559450.778467 -6807955.383553 8931.064453
559896.535995 -6807934.049934 8445.311523 559896.535995 -6807934.049934 8984.885742
560132.252224 -6808004.364357 7968.103516 560132.252224 -6808004.364357 8976.277344

550033.584785 -6807548.148364 7480.998047 550033.584785 -6807548.148364 8780.750000
550258.421768 -6807438.148072 8460.706055 550258.421768 -6807438.148072 8780.706055
550718.626638 -6807451.887086 8387.670898 550718.626638 -6807451.887086 8707.670898
551178.759044 -6807466.190888 8317.008789 551178.759044 -6807466.190888 8637.008789
551638.523835 -6807480.904755 8252.667969 551638.523835 -6807480.904755 8572.667969
552097.585257 -6807495.877045 8190.251465 552097.585257 -6807495.877045 8510.250977
552555.487195 -6807510.988480 8125.455566 552555.487195 -6807510.988480 8445.456055
553011.666003 -6807525.992524 8055.625977 553011.666003 -6807525.992524 8375.625977
553465.269753 -6807540.639466 7981.503418 553465.269753 -6807540.639466 8301.503906
553915.428846 -6807554.492280 7911.794434 553915.428846 -6807554.492280 8231.794922
554363.127657 -6807567.728221 7770.920410 554363.127657 -6807567.728221 8167.299805
554772.095590 -6807568.426331 7758.679688 554772.095590 -6807568.426331 8081.202148
555179.601165 -6807568.473740 7772.891113 555179.601165 -6807568.473740 8113.385742
555587.796407 -6807567.511521 7784.052734 555587.796407 -6807567.511521 8145.854980
555997.458125 -6807565.450059 7802.736328 555997.458125 -6807565.450059 8182.991699
556408.037606 -6807562.419053 7831.513184 556408.037606 -6807562.419053 8227.775391
556818.187603 -6807558.853695 7908.192383 556818.187603 -6807558.853695 8367.372070
557240.168583 -6807553.311406 7980.518555 557240.168583 -6807553.311406 8442.513672
557672.937228 -6807545.673371 8041.458496 557672.937228 -6807545.673371 8488.586914
558106.437145 -6807537.819492 8084.036133 558106.437145 -6807537.819492 8662.439453
558552.970595 -6807520.792847 8257.802734 558552.970595 -6807520.792847 8741.344727
558999.437260 -6807503.604447 8306.691406 558999.437260 -6807503.604447 8811.963867
559445.720651 -6807486.249619 8353.659180 559445.720651 -6807486.249619 8877.489258
559891.842880 -6807468.942872 8399.936523 559891.842880 -6807468.942872 8938.041016
560129.012218 -6807542.939182 7951.957031 560129.012218 -6807542.939182 8943.970703

550033.957206 -6807097.607940 7473.537109 550033.957206 -6807097.607940 8764.980469
550260.953506 -6806994.810510 8426.325195 550260.953506 -6806994.810510 8746.325195
550720.526281 -6807007.751931 8344.641602 550720.526281 -6807007.751931 8664.641602
551179.903484 -6807021.056710 8260.857422 551179.903484 -6807021.056710 8580.857422
551638.802445 -6807034.608407 8178.245117 551638.802445 -6807034.608407 8498.245117
552096.791526 -6807048.148843 8099.876953 552096.791526 -6807048.148843 8419.876953
552553.323987 -6807061.413049 8027.177734 552553.323987 -6807061.413049 8347.176758
553007.767977 -6807074.127298 7924.557617 553007.767977 -6807074.127298 8244.557617
553459.295403 -6807085.996148 7865.576660 553459.295403 -6807085.996148 8185.576660
553905.093886 -6807096.101373 7815.935547 553905.093886 -6807096.101373 8135.935547
554340.443556 -6807102.674741 7709.078125 554340.443556 -6807102.674741 8071.134766
554753.384989 -6807100.477960 7702.893066 554753.384989 -6807100.477960 8023.332520
555166.339798 -6807098.074563 7710.727539 555166.339798 -6807098.074563 8046.767578
555579.541669 -6807094.724328 7730.520508 555579.541669 -6807094.724328 8089.139648
555993.251193 -6807090.178125 7757.178711 555993.251193 -6807090.178125 8135.455566
556407.372819 -6807084.462197 7793.839355 556407.372819 -6807084.462197 8188.862793
556822.611380 -6807077.732141 7831.325684 556822.611380 -6807077.732141 8243.133789
557241.861902 -6807070.417398 7902.892090 557241.861902 -6807070.417398 8382.115234
557671.298129 -6807063.023095 8016.570801 557671.298129 -6807063.023095 8463.650391
558103.933820 -6807054.789551 8079.541016 558103.933820 -6807054.789551 8599.669922
558549.113707 -6807041.771768 8184.368652 558549.113707 -6807041.771768 8668.266602
558994.650318 -6807028.627069 8248.874023 558994.650318 -6807028.627069 8753.218750
559440.551782 -6807015.365411 8312.835938 559440.551782 -6807015.365411 8835.827148
559886.890091 -6807002.166597 8361.623047 559886.890091 -6807002.166597 8899.635742
560125.642375 -6807080.679400 7934.118164 560125.642375 -6807080.679400 8917.597656

549804.378687 -6806538.927423 8447.838867 549804.378687 -6806538.927423 8767.838867
550263.315353 -6806550.752176 8372.783203 550263.315353 -6806550.752176 8692.783203
550722.086431 -6806562.817766 8285.988281 550722.086431 -6806562.817766 8605.988281
551180.468349 -6806575.040270 8196.573242 551180.468349 -6806575.040270 8516.573242
551638.206071 -6806587.294130 8104.481445 551638.206071 -6806587.294130 8424.481445
552094.937156 -6806599.331880 8015.122070 552094.937156 -6806599.331880 8335.122070
552550.085019 -6806610.852083 7921.217773 552550.085019 -6806610.852083 8241.217773
553002.646456 -6806621.295381 7852.542480 553002.646456 -6806621.295381 8172.542480
553452.393349 -6806630.497972 7807.473145 553452.393349 -6806630.497972 8127.473145
553903.374782 -6806640.148207 7719.108887 553903.374782 -6806640.148207 8060.619141
554320.586469 -6806636.912127 7652.209961 554320.586469 -6806636.912127 7996.937500
554737.681482 -6806633.306444 7644.345703 554737.681482 -6806633.306444 7965.103516
555154.466384 -6806628.803591 7653.585449 555154.466384 -6806628.803591 7989.656250
555571.094137 -6806623.142137 7681.711426 555571.094137 -6806623.142137 8040.103516
555987.754596 -6806616.120363 7704.543457 555987.754596 -6806616.120363 8082.597168
556404.709748 -6806607.709306 7752.116211 556404.709748 -6806607.709306 8147.718750
556822.300116 -6806598.053056 7783.645996 556822.300116 -6806598.053056 8196.586914
557239.927442 -6806587.356756 7841.690430 557239.927442 -6806587.356756 8376.501953
557667.536861 -6806580.125754 7906.896973 557667.536861 -6806580.125754 8457.691406
558100.068096 -6806571.048149 8067.480957 558100.068096 -6806571.048149 8539.099609
558544.660017 -6806562.101854 8116.304688 558544.660017 -6806562.101854 8601.238281
558989.530750 -6806552.939966 8189.346191 558989.530750 -6806552.939966 8694.188477
559435.240686 -6806543.763101 8272.574219 559435.240686 -6806543.763101 8796.086914
559881.903823 -6806534.741220 8334.836914 559881.903823 -6806534.741220 8874.363281
560122.255792 -6806618.095068 7915.698242 560122.255792 -6806618.095068 8909.199219

549807.360086 -6806095.059763 8422.435547 549807.360086 -6806095.059763 8742.697266
550265.576294 -6806106.119143 8331.796875 550265.576294 -6806106.119143 8652.231445
550723.421010 -6806117.238749 8237.136719 550723.421010 -6806117.238749 8557.922852
551180.690334 -6806128.314005 8135.649902 551180.690334 -6806128.314005 8454.569336
551637.055207 -6806139.175379 8041.036621 551637.055207 -6806139.175379 8363.151367
552092.266852 -6806149.613337 7951.344727 552092.266852 -6806149.613337 8267.467773
552546.210095 -6806159.496424 7865.189941 552546.210095 -6806159.496424 8189.090332
552998.352435 -6806168.484049 7814.548340 552998.352435 -6806168.484049 8126.611328
553445.869515 -6806175.160471 7768.881348 553445.869515 -6806175.160471 8088.881348
553884.351225 -6806177.383321 7663.765137 553884.351225 -6806177.383321 7991.779297
554304.964237 -6806173.017420 7596.181641 554304.964237 -6806173.017420 7916.181641
554724.581247 -6806167.582606 7588.645020 554724.581247 -6806167.582606 7911.214355
555143.895889 -6806161.075068 7605.652832 555143.895889 -6806161.075068 7947.011230
555562.898816 -6806153.291743 7640.468262 555562.898816 -6806153.291743 8000.312988
555981.653484 -6806143.929774 7679.843750 555981.653484 -6806143.929774 8058.605957
556400.374391 -6806133.001398 7716.807129 556400.374391 -6806133.001398 8114.205566
556819.343039 -6806121.025141 7758.825684 556819.343039 -6806121.025141 8174.087402
557239.489026 -6806108.904696 7791.099121 557239.489026 -6806108.904696 8224.642578
557662.939672 -6806096.901452 7855.160156 557662.939672 -6806096.901452 8457.605469
558094.982851 -6806087.533098 8014.487793 558094.982851 -6806087.533098 8497.041016
558538.971922 -6806082.586161 8060.579102 558538.971922 -6806082.586161 8548.413086
558983.593098 -6806077.308131 8128.235840 558983.593098 -6806077.308131 8634.230469
559429.734613 -6806072.369135 8227.752930 559429.734613 -6806072.369135 8751.433594
559877.158722 -6806067.642878 8317.048828 559877.158722 -6806067.642878 8857.130859
560325.327825 -6806062.777628 8385.888672 560325.327825 -6806062.777628 8935.632813

549810.395654 -6805650.804912 8412.576172 549810.395654 -6805650.804912 8732.576172
550267.816757 -6805661.023288 8303.485352 550267.816757 -6805661.023288 8623.485352
550724.693899 -6805671.168818 8190.003418 550724.693899 -6805671.168818 8510.002930
551180.785533 -6805681.086032 8080.744629 551180.785533 -6805681.086032 8400.744141
551635.802110 -6805690.548709 7987.310547 551635.802110 -6805690.548709 8307.310547
552089.360282 -6805699.348056 7881.995605 552089.360282 -6805699.348056 8201.996094
552541.365018 -6805707.320956 7820.013672 552541.365018 -6805707.320956 8140.013672
552992.763079 -6805714.864184 7778.866699 552992.763079 -6805714.864184 8098.866699
553446.262922 -6805723.134192 7680.150879 553446.262922 -6805723.134192 8015.197266
553868.728782 -6805716.722611 7581.859375 553868.728782 -6805716.722611 7920.249512
554291.297749 -6805710.357516 7564.500488 554291.297749 -6805710.357516 7885.418457
554713.169168 -6805703.316974 7560.536621 554713.169168 -6805703.316974 7891.733887
555134.449302 -6805695.146243 7565.859863 555134.449302 -6805695.146243 7915.080566
555555.233289 -6805685.566043 7613.107422 555555.233289 -6805685.566043 7979.706055
555975.545413 -6805674.264041 7657.361816 555975.545413 -6805674.264041 8041.305176
556395.510575 -6805661.211757 7702.147949 556395.510575 -6805661.211757 8103.949219
556815.336783 -6805646.794223 7743.329590 556815.336783 -6805646.794223 8162.274902
557235.458493 -6805631.839580 7778.507813 557235.458493 -6805631.839580 8215.985352
557655.894927 -6805617.085975 7832.798828 557655.894927 -6805617.085975 8458.507813
558088.828333 -6805605.412733 7976.395996 558088.828333 -6805605.412733 8468.809570
558531.172850 -6805603.461505 8035.778809 558531.172850 -6805603.461505 8526.815430
558976.759952 -6805602.448657 8086.050781 558976.759952 -6805602.448657 8594.464844
559424.396738 -6805602.257983 8190.917969 559424.396738 -6805602.257983 8716.566406
559872.920761 -6805601.908297 8296.153320 559872.920761 -6805601.908297 8838.301758
560321.872625 -6805600.830798 8382.683594 560321.872625 -6805600.830798 8932.683594

549813.528986 -6805206.270710 8401.256836 549813.528986 -6805206.270710 8721.520508
550270.176910 -6805215.674846 8284.039063 550270.176910 -6805215.674846 8604.226563
550726.020894 -6805224.796741 8159.472168 550726.020894 -6805224.796741 8475.360352
551180.922069 -6805233.495952 8030.791016 551180.922069 -6805233.495952 8363.410156
551634.684693 -6805241.687572 7926.636719 551634.684693 -6805241.687572 8246.636719
552087.045035 -6805249.109905 7849.101074 552087.045035 -6805249.109905 8169.101074
552537.450268 -6805255.453411 7792.609375 552537.450268 -6805255.453411 8112.609375
552985.392596 -6805260.482189 7752.504395 552985.392596 -6805260.482189 8072.504395
553431.885024 -6805265.012102 7656.097168 553431.885024 -6805265.012102 7986.163574
553856.167494 -6805257.145320 7557.297852 553856.167494 -6805257.145320 7877.297852
554279.856190 -6805249.160045 7553.636230 554279.856190 -6805249.160045 7878.239746
554703.211023 -6805240.671581 7565.782227 554703.211023 -6805240.671581 7905.885742
555126.019508 -6805231.157695 7558.827148 555126.019508 -6805231.157695 7915.922363
555548.226728 -6805220.182659 7599.453613 555548.226728 -6805220.182659 7973.859375
555969.787326 -6805207.445491 7645.604492 555969.787326 -6805207.445491 8037.076660
556390.673051 -6805192.776729 7689.341309 556390.673051 -6805192.776729 8098.312012
556810.767890 -6805176.184261 7732.064453 556810.767890 -6805176.184261 8158.272949
557229.882352 -6805157.729457 7771.385254 557229.882352 -6805157.729457 8215.102539
557648.376446 -6805138.393440 7822.268066 557648.376446 -6805138.393440 8450.867188
558081.670919 -6805125.734660 7921.842285 558081.670919 -6805125.734660 8435.550781
558520.090606 -6805124.021737 7980.722656 558520.090606 -6805124.021737 8472.738281
558970.209354 -6805129.837993 8067.203125 558970.209354 -6805129.837993 8579.136719
559419.778635 -6805134.781703 8165.792969 559419.778635 -6805134.781703 8695.325195
559869.343109 -6805138.405056 8278.842773 559869.343109 -6805138.405056 8822.705078
560318.976308 -6805140.583644 8377.661133 560318.976308 -6805140.583644 8927.418945

549816.833963 -6804761.550701 8390.673828 549816.833963 -6804761.550701 8710.673828
550272.759094 -6804770.168621 8273.144531 550272.759094 -6804770.168621 8593.144531
550727.638479 -6804778.273403 8149.060547 550727.638479 -6804778.273403 8469.060547
551181.338863 -6804785.822559 8019.374512 551181.338863 -6804785.822559 8339.374023
551633.783128 -6804792.705357 7890.612793 551633.783128 -6804792.705357 8210.613281
552085.020591 -6804798.924366 7811.281250 552085.020591 -6804798.924366 8131.281250
552534.688260 -6804804.234242 7780.790039 552534.688260 -6804804.234242 8100.790039
552980.498370 -6804807.379337 7729.395020 552980.498370 -6804807.379337 8049.395020
553419.266757 -6804806.330697 7630.538574 553419.266757 -6804806.330697 7957.831055
553844.949202 -6804798.087544 7552.661133 553844.949202 -6804798.087544 7874.085938
554270.080112 -6804789.314198 7558.286621 554270.080112 -6804789.314198 7890.243652
554694.637201 -6804779.798267 7569.324219 554694.637201 -6804779.798267 7916.900879
555118.587471 -6804769.179203 7563.861328 555118.587471 -6804769.179203 7928.136230
555541.872205 -6804757.149334 7590.083984 555541.872205 -6804757.149334 7971.124023
555964.436160 -6804743.437344 7638.664063 555964.436160 -6804743.437344 8036.515137
556386.092622 -6804727.846470 7683.397949 556386.092622 -6804727.846470 8098.711426
556806.591513 -6804709.978016 7728.354492 556806.591513 -6804709.978016 8160.579102
557225.275326 -6804689.107060 7771.637207 557225.275326 -6804689.107060 8220.536133
557641.326062 -6804664.229105 7820.659668 557641.326062 -6804664.229105 8457.330078
558074.133219 -6804656.806257 7854.273438 558074.133219 -6804656.806257 8441.962891
558514.637527 -6804650.664877 7958.687012 558514.637527 -6804650.664877 8454.722656
558965.046909 -6804661.835392 8060.958984 558965.046909 -6804661.835392 8576.009766
559415.832620 -6804670.808369 8156.425293 559415.832620 -6804670.808369 8688.817383
559866.350616 -6804677.555225 8269.386719 559866.350616 -6804677.555225 8813.931641
560316.538152 -6804682.343266 8369.996094 560316.538152 -6804682.343266 8918.249023

549820.413385 -6804316.649586 8386.996094 549820.413385 -6804316.649586 8706.996094
550275.688598 -6804324.547276 8264.016602 550275.688598 -6804324.547276 8584.016602
550729.709981 -6804331.773190 8123.503906 550729.709981 -6804331.773190 8443.503906
551182.344890 -6804338.270718 8018.346191 551182.344890 -6804338.270718 8338.346680
551633.410874 -6804343.912106 7905.062988 551633.410874 -6804343.912106 8225.063477
552082.956076 -6804348.630490 7807.331055 552082.956076 -6804348.630490 8127.331055
552531.770703 -6804352.919522 7773.485352 552531.770703 -6804352.919522 8093.485352
552981.961663 -6804357.943152 7684.922852 552981.961663 -6804357.943152 8017.382324
553408.759321 -6804348.699371 7606.540039 553408.759321 -6804348.699371 7927.736328
553835.647612 -6804340.233716 7556.377930 553835.647612 -6804340.233716 7879.230469
554261.830463 -6804330.915120 7562.128906 554261.830463 -6804330.915120 7899.650391
554687.270357 -6804320.596043 7571.641113 554687.270357 -6804320.596043 7924.986328
555112.033111 -6804309.182507 7567.186035 555112.033111 -6804309.182507 7936.845703
555536.164564 -6804296.452038 7590.301758 555536.164564 -6804296.452038 7976.101074
555959.527461 -6804282.184247 7636.684570 555959.527461 -6804282.184247 8038.932617
556381.945634 -6804266.156613 7682.312500 556381.945634 -6804266.156613 8101.445801
556803.275550 -6804248.191388 7729.462891 556803.275550 -6804248.191388 8165.642090
557223.754635 -6804228.411557 7772.529297 557223.754635 -6804228.411557 8225.909180
557644.848971 -6804208.045270 7813.242188 557644.848971 -6804208.045270 8283.638672
558068.360757 -6804187.833104 7845.915527 558068.360757 -6804187.833104 8406.094727
558508.224624 -6804188.385267 7936.696289 558508.224624 -6804188.385267 8435.216797
558961.262440 -6804200.235013 8056.713379 558961.262440 -6804200.235013 8575.534180
559413.019953 -6804210.915784 8151.757324 559413.019953 -6804210.915784 8685.587891
559863.990600 -6804219.652142 8260.304688 559863.990600 -6804219.652142 8802.729492
560314.510641 -6804226.309918 8358.662109 560314.510641 -6804226.309918 8906.502930

549824.316629 -6803871.586576 8391.272461 549824.316629 -6803871.586576 8711.272461
550279.030960 -6803878.847257 8266.730469 550279.030960 -6803878.847257 8586.731445
550732.332525 -6803885.350858 8138.573242 550732.332525 -6803885.350858 8458.529297
551184.115794 -6803890.993818 8001.878418 551184.115794 -6803890.993818 8322.998047
551634.202882 -6803895.659223 7884.522949 551634.202882 -6803895.659223 8202.698242
552082.361411 -6803899.136709 7807.272461 552082.361411 -6803899.136709 8128.260254
552528.447278 -6803901.394109 7774.019043 552528.447278 -6803901.394109 8093.588867
552973.241700 -6803903.142548 7683.075195 552973.241700 -6803903.142548 8005.109375
553401.195092 -6803893.653966 7604.478516 553401.195092 -6803893.653966 7925.067383
553828.371840 -6803883.999700 7566.655273 553828.371840 -6803883.999700 7892.386230
554255.021854 -6803873.925298 7565.339355 554255.021854 -6803873.925298 7906.896973
554681.019045 -6803863.025365 7571.641602 554681.019045 -6803863.025365 7929.454590
555106.411224 -6803851.114507 7565.518066 555106.411224 -6803851.114507 7939.840820
555531.194318 -6803838.042150 7593.239746 555531.194318 -6803838.042150 7983.262695
555955.287563 -6803823.680578 7645.833008 555955.287563 -6803823.680578 8052.026367
556378.642747 -6803807.954076 7691.375000 556378.642747 -6803807.954076 8114.228027
556801.456611 -6803791.011068 7737.165039 556801.456611 -6803791.011068 8177.025879
557224.131634 -6803773.180791 7776.079102 557224.131634 -6803773.180791 8233.318359
557646.828646 -6803754.238927 7819.312500 557646.828646 -6803754.238927 8293.795898
558067.894610 -6803732.106864 7853.616211 558067.894610 -6803732.106864 8405.827148
558508.186995 -6803732.912577 7907.757324 558508.186995 -6803732.912577 8463.177734
558959.817646 -6803744.612066 8055.545410 558959.817646 -6803744.612066 8579.665039
559411.237238 -6803755.530385 8152.261719 559411.237238 -6803755.530385 8690.289063
559862.214981 -6803765.004064 8262.295898 559862.214981 -6803765.004064 8806.224609
560312.884832 -6803772.744314 8361.706055 560312.884832 -6803772.744314 8910.762695

549828.587915 -6803426.435545 8393.709961 549828.587915 -6803426.435545 8713.709961
550282.864273 -6803433.175688 8267.424805 550282.864273 -6803433.175688 8587.424805
550735.591192 -6803439.031713 8145.361816 550735.591192 -6803439.031713 8465.362305
551186.675700 -6803443.934996 8016.808594 551186.675700 -6803443.934996 8336.808594
551636.000688 -6803447.839079 7900.467773 551636.000688 -6803447.839079 8220.467773
552083.465171 -6803450.605520 7803.071777 552083.465171 -6803450.605520 8123.071777
552527.859387 -6803451.420515 7760.711914 552527.859387 -6803451.420515 8080.711914
552966.672019 -6803448.527398 7681.118652 552966.672019 -6803448.527398 8000.178711
553394.969307 -6803439.002890 7620.145508 553394.969307 -6803439.002890 7940.145508
553822.585798 -6803428.959219 7585.252930 553822.585798 -6803428.959219 7913.841309
554249.557667 -6803418.374540 7558.976074 554249.557667 -6803418.374540 7903.821777
554675.941881 -6803407.051832 7561.742676 554675.941881 -6803407.051832 7922.336426
555101.796516 -6803394.929609 7567.927246 555101.796516 -6803394.929609 7944.663574
555527.119375 -6803381.887541 7613.568848 555527.119375 -6803381.887541 8006.971191
555951.907863 -6803367.928053 7660.570313 555951.907863 -6803367.928053 8070.456543
556376.336930 -6803353.099150 7704.127930 556376.336930 -6803353.099150 8130.394531
556800.595298 -6803337.616423 7747.427734 556800.595298 -6803337.616423 8190.134766
557224.967999 -6803321.747724 7785.819336 557224.967999 -6803321.747724 8245.110352
557650.005709 -6803306.071577 7826.107910 557650.005709 -6803306.071577 8302.545898
558077.368157 -6803292.618589 7887.219238 558077.368157 -6803292.618589 8381.347656
558509.359318 -6803283.415746 7941.077148 558509.359318 -6803283.415746 8480.820313
558959.934559 -6803294.150190 8064.185547 558959.934559 -6803294.150190 8591.925781
559410.493845 -6803304.341764 8162.311523 559410.493845 -6803304.341764 8702.009766
559861.105072 -6803313.647596 8268.125977 559861.105072 -6803313.647596 8813.400391
560311.756933 -6803321.744612 8366.900391 560311.756933 -6803321.744612 8916.900391

549833.245523 -6802981.255606 8400.916992 549833.245523 -6802981.255606 8720.916992