SPECGRID
2 2 1 1 F /
COORD
54*0.0 /
ZCORN
32*1000.0 /
ACTNUM
4*1 /
